
#(C) 2021 by FIZ Karlsruhe - Leibniz Institute for Information Infrastructure.  All rights reserved.
data_105452-ICSD
_database_code_ICSD 105452
_audit_creation_date 2004-10-01
_audit_update_record 2007-04-01
_chemical_name_common 'Nickel tungsten (4/1)'
_chemical_formula_structural 'Ni4 W'
_chemical_formula_sum 'Ni4 W1'
_chemical_name_structure_type MoNi4
_exptl_crystal_density_diffrn 11.92
_citation_title 'The crystal structure of Ni4 W'
loop_
_citation_id
_citation_journal_full
_citation_year
_citation_journal_volume
_citation_page_first
_citation_page_last
_citation_journal_id_ASTM
primary

;
Transactions of the American Institute of Mining, Metallurgical and Petroleum
Engineers
; 1949 185 267 273 TAIMAF
loop_
_citation_author_citation_id
_citation_author_name
primary 'Epremian, E.'
primary 'Harker, D.'
_cell_length_a 5.730(1)
_cell_length_b 5.73
_cell_length_c 3.553(1)
_cell_angle_alpha 90.
_cell_angle_beta 90.
_cell_angle_gamma 90.
_cell_volume 116.66
_cell_formula_units_Z 2
_space_group_name_H-M_alt 'I 4/m'
_space_group_IT_number 87
loop_
_space_group_symop_id
_space_group_symop_operation_xyz
1 '-y, x, -z'
2 'y, -x, -z'
3 'x, y, -z'
4 '-x, -y, -z'
5 'y, -x, z'
6 '-y, x, z'
7 '-x, -y, z'
8 'x, y, z'
9 '-y+1/2, x+1/2, -z+1/2'
10 'y+1/2, -x+1/2, -z+1/2'
11 'x+1/2, y+1/2, -z+1/2'
12 '-x+1/2, -y+1/2, -z+1/2'
13 'y+1/2, -x+1/2, z+1/2'
14 '-y+1/2, x+1/2, z+1/2'
15 '-x+1/2, -y+1/2, z+1/2'
16 'x+1/2, y+1/2, z+1/2'
loop_
_atom_type_symbol
_atom_type_oxidation_number
Ni0+ 0
W0+ 0
loop_
_atom_site_label
_atom_site_type_symbol
_atom_site_symmetry_multiplicity
_atom_site_Wyckoff_symbol
_atom_site_fract_x
_atom_site_fract_y
_atom_site_fract_z
_atom_site_B_iso_or_equiv
_atom_site_occupancy
Ni1 Ni0+ 8 h 0.2 0.4 0 . 1.
W1 W0+ 2 a 0 0 0 . 1.
#End of TTdata_105452-ICSD